VARIABLES = "X" ,  "Y" , "U", "V", "P" 
ZONE NODES = 21417 , ELEMENTS = 42240 , DATAPACKING = POINT , ZONETYPE=FETRIANGLE 
0 1 -0.0297766 -0.000423064 -1.72042
0.0535714 1 -0.0273271 -0.000114396 -1.70937
0.107143 1 -0.0283438 0.000269279 -1.70031
0.160714 0.997986 -0.0266198 0.000988999 -1.69166
0.214286 0.992322 -0.0030137 0.000501908 -1.67979
0.267857 0.9816 -0.000534742 0.000403227 -1.66741
0.321429 0.964286 0.00909233 -0.00513345 -1.65932
0 1.0068 0.0412055 -0.000265997 -1.72043
0.0535714 1.0068 0.041379 -0.000267452 -1.70929
0.107143 1.0068 0.039438 -0.00101739 -1.7001
0.160714 1.00479 0.0171394 -0.00233359 -1.69122
0.214286 0.999148 -0.0126331 -0.00140644 -1.67955
0.267857 0.988463 -0.0145167 0.00545652 -1.66772
0.321429 0.971206 -0.0134686 0.00264773 -1.65991
0 1.01379 0.0857773 -0.000586114 -1.72036
0.0535714 1.01379 0.0828968 1.35258e-05 -1.70937
0.107143 1.01379 0.0780793 -8.07781e-05 -1.70024
0.160714 1.01179 0.0609839 -0.00219217 -1.69126
0.214286 1.00616 0.0300342 -0.00446251 -1.67949
0.267857 0.995515 -0.0143411 0.00461042 -1.6677
0.321429 0.978318 -0.0243898 0.00479644 -1.66
0 1.02097 0.148019 0.00154859 -1.72
0.0535714 1.02097 0.142092 0.00129311 -1.70911
0.107143 1.02097 0.131466 0.00122675 -1.69995
0.160714 1.01898 0.107497 -0.000610468 -1.69101
0.214286 1.01337 0.0641954 -0.00432097 -1.67942
0.267857 1.00276 0.00776887 0.000697972 -1.66777
0.321429 0.985626 -0.0337666 0.00779304 -1.66029
0 1.02835 0.156104 0.000622536 -1.7193
0.0535714 1.02835 0.156072 0.00137493 -1.70873
0.107143 1.02835 0.148218 0.00222511 -1.69954
0.160714 1.02637 0.134791 0.00144172 -1.69051
0.214286 1.02078 0.0979733 -0.00177052 -1.67907
0.267857 1.01021 0.0478966 -0.00255066 -1.66746
0.321429 0.993137 -0.0121165 0.00407566 -1.66036
0 1.03594 0.111099 -0.00130157 -1.7181
0.0535714 1.03594 0.125752 0.0016005 -1.7079
0.107143 1.03594 0.126278 0.00390217 -1.69884
0.160714 1.03396 0.126182 0.00412336 -1.68983
0.214286 1.0284 0.111606 0.00149745 -1.67867
0.267857 1.01786 0.0734155 -0.000771743 -1.66699
0.321429 1.00085 0.00739144 0.000504237 -1.66015
0 1.04373 0.0533701 -0.00574175 -1.7167
0.0535714 1.04373 0.0784124 -0.000497931 -1.70683
0.107143 1.04373 0.0875487 0.00356448 -1.69788
0.160714 1.04176 0.096379 0.00590945 -1.68895
0.214286 1.03622 0.0974709 0.00605393 -1.67812
0.267857 1.02573 0.0865614 0.00343354 -1.66648
0.321429 1.00879 0.035448 -0.00116967 -1.65948
0 1.05174 -0.0291552 -0.0122317 -1.7151
0.0535714 1.05174 0.00585988 -0.00388263 -1.70562
0.107143 1.05174 0.0258205 0.00258958 -1.69678
0.160714 1.04978 0.049126 0.00657858 -1.68801
0.214286 1.04426 0.0719823 0.00878742 -1.67758
0.267857 1.03381 0.0817344 0.00866463 -1.66612
0.321429 1.01694 0.0501277 4.1921e-05 -1.6585
0 1.05998 -0.0830081 -0.0180614 -1.71335
0.0535714 1.05998 -0.0487657 -0.00813222 -1.70427
0.107143 1.05998 -0.0250571 -6.72789e-05 -1.69558
0.160714 1.05802 0.000515739 0.0059913 -1.68696
0.214286 1.05252 0.027521 0.0111031 -1.67704
0.267857 1.04212 0.0636783 0.0136615 -1.6659
0.321429 1.02531 0.0561837 0.00411399 -1.65758
0 1.06843 -0.138303 -0.0244563 -1.7115
0.0535714 1.06843 -0.108373 -0.0131155 -1.70282
0.107143 1.06843 -0.0828854 -0.00341874 -1.69434
0.160714 1.06649 -0.0518951 0.00447487 -1.68586
0.214286 1.06101 -0.0112236 0.0107778 -1.67649
0.267857 1.05065 0.0325698 0.0176853 -1.66582
0.321429 1.03392 0.0518007 0.00901139 -1.65689
0 1.07713 -0.161658 -0.0278382 -1.70956
0.0535714 1.07713 -0.138596 -0.0168119 -1.70127
0.107143 1.07713 -0.11647 -0.00679473 -1.69306
0.160714 1.07519 -0.0891686 0.00223673 -1.68473
0.214286 1.06974 -0.056457 0.00974447 -1.67589
0.267857 1.05943 -0.000973081 0.0195412 -1.66587
0.321429 1.04277 0.0388083 0.0142509 -1.65649
0 1.08606 -0.182012 -0.0309192 -1.70756
0.0535714 1.08606 -0.166038 -0.0203225 -1.69966
0.107143 1.08606 -0.148056 -0.0101733 -1.69174
0.160714 1.08413 -0.125407 -0.000408545 -1.68361
0.214286 1.07871 -0.0900994 0.0074898 -1.6752
0.267857 1.06844 -0.0420035 0.0199378 -1.66601
0.321429 1.05186 0.0146924 0.0193333 -1.65634
0 1.09524 -0.191897 -0.0326668 -1.7055
0.0535714 1.09524 -0.181523 -0.0227616 -1.698
0.107143 1.09524 -0.167935 -0.0129259 -1.69038
0.160714 1.09332 -0.148026 -0.00298185 -1.68252
0.214286 1.08792 -0.120019 0.00502952 -1.67441
0.267857 1.0777 -0.0729057 0.0181527 -1.66617
0.321429 1.0612 -0.00971538 0.0224908 -1.65641
0 1.10468 -0.196737 -0.0336499 -1.70338
0.0535714 1.10468 -0.190565 -0.0244413 -1.6963
0.107143 1.10468 -0.180862 -0.0151421 -1.68897
0.160714 1.10276 -0.166583 -0.00541672 -1.68146
0.214286 1.09739 -0.144703 0.00245514 -1.67354
0.267857 1.08722 -0.103752 0.01543 -1.66624
0.321429 1.0708 -0.0404306 0.024458 -1.6567
0 1.11437 -0.198634 -0.0342251 -1.70119
0.0535714 1.11437 -0.195839 -0.025712 -1.69456
0.107143 1.11437 -0.189692 -0.0170544 -1.68751
0.160714 1.11247 -0.178827 -0.00757386 -1.68041
0.214286 1.10712 -0.159679 0.000280514 -1.67265
0.267857 1.09701 -0.129675 0.0119935 -1.66614
0.321429 1.08066 -0.0688702 0.0244124 -1.65716
0 1.12433 -0.197145 -0.0341793 -1.69896
0.0535714 1.12433 -0.196125 -0.0262397 -1.69278
0.107143 1.12433 -0.192069 -0.0181722 -1.68602
0.160714 1.12244 -0.184568 -0.00917615 -1.67934
0.214286 1.11712 -0.171619 -0.00168705 -1.6718
0.267857 1.10706 -0.147166 0.00858278 -1.66582
0.321429 1.0908 -0.0945845 0.02292 -1.6577
0 1.13457 -0.194793 -0.0339956 -1.69667
0.0535714 1.13457 -0.195141 -0.0265958 -1.69095
0.107143 1.13457 -0.192807 -0.0190249 -1.6845
0.160714 1.13269 -0.188077 -0.0106507 -1.67822
0.214286 1.1274 -0.178599 -0.00328257 -1.671
0.267857 1.11739 -0.161157 0.00537871 -1.66531
0.321429 1.10122 -0.118896 0.0202664 -1.65821
0 1.14509 -0.191589 -0.0336725 -1.69434
0.0535714 1.14509 -0.192887 -0.0267698 -1.68908
0.107143 1.14509 -0.191898 -0.0196233 -1.68297
0.160714 1.14322 -0.188894 -0.0118907 -1.67703
0.214286 1.13796 -0.181755 -0.00451526 -1.67024
0.267857 1.12801 -0.170259 0.00266821 -1.66467
0.321429 1.11193 -0.137766 0.0168606 -1.65856
0 1.15591 -0.187467 -0.0330883 -1.69198
0.0535714 1.15591 -0.189236 -0.0265718 -1.68716
0.107143 1.15591 -0.189149 -0.0198911 -1.68143
0.160714 1.15405 -0.187295 -0.0126756 -1.67579
0.214286 1.14882 -0.183019 -0.00561776 -1.66948
0.267857 1.13892 -0.174826 0.000600266 -1.66397
0.321429 1.12293 -0.151 0.013293 -1.65871
0 1.16702 -0.183041 -0.0324614 -1.68959
0.0535714 1.16702 -0.185135 -0.0263055 -1.68519
0.107143 1.16702 -0.185606 -0.0199468 -1.67986
0.160714 1.16517 -0.184842 -0.01335 -1.67451
0.214286 1.15997 -0.182348 -0.00656967 -1.66869
0.267857 1.15013 -0.177166 -0.00105152 -1.66328
0.321429 1.13424 -0.161032 0.00973383 -1.65862
0 1.17844 -0.178374 -0.0318227 -1.68718
0.0535714 1.17844 -0.18067 -0.0259938 -1.68319
0.107143 1.17844 -0.181501 -0.0199085 -1.67827
0.160714 1.1766 -0.181612 -0.0139021 -1.6732
0.214286 1.17143 -0.180209 -0.00743845 -1.66784
0.267857 1.16165 -0.177409 -0.00233524 -1.66261
0.321429 1.14585 -0.16768 0.00645041 -1.65833
0 1.19017 -0.173525 -0.0311901 -1.68474
0.0535714 1.19017 -0.175904 -0.0256452 -1.68116
0.107143 1.19017 -0.177032 -0.0198732 -1.67664
0.160714 1.18835 -0.177499 -0.0141832 -1.67188
0.214286 1.18321 -0.177109 -0.00813355 -1.66692
0.267857 1.17349 -0.175971 -0.00328431 -1.66195
0.321429 1.15779 -0.170525 0.00368396 -1.65789
0 1.20223 -0.168559 -0.0305516 -1.68229
0.0535714 1.20223 -0.17093 -0.0252577 -1.6791
0.107143 1.20223 -0.172134 -0.0197143 -1.67497
0.160714 1.20042 -0.172928 -0.0143567 -1.67053
0.214286 1.19532 -0.173282 -0.00869093 -1.66594
0.267857 1.18566 -0.17327 -0.0039667 -1.6613
0.321429 1.17007 -0.171024 0.00145574 -1.65735
0 1.21462 -0.163441 -0.0299201 -1.67982
0.0535714 1.21462 -0.165752 -0.0248402 -1.67702
0.107143 1.21462 -0.167037 -0.019558 -1.67327
0.160714 1.21282 -0.168032 -0.0144529 -1.66917
0.214286 1.20775 -0.168909 -0.00914883 -1.66489
0.267857 1.19816 -0.169761 -0.00449927 -1.66063
0.321429 1.18268 -0.169917 -0.000279476 -1.65676
0 1.22736 -0.158129 -0.0292646 -1.67734
0.0535714 1.22736 -0.160398 -0.0243988 -1.67492
0.107143 1.22736 -0.161703 -0.019348 -1.67153
0.160714 1.22557 -0.16288 -0.0145053 -1.66779
0.214286 1.22054 -0.164115 -0.00958999 -1.6638
0.267857 1.21101 -0.165609 -0.00494497 -1.65993
0.321429 1.19563 -0.167433 -0.00153967 -1.65612
0 1.24044 -0.152641 -0.0285936 -1.67485
0.0535714 1.24044 -0.154862 -0.023924 -1.67281
0.107143 1.24044 -0.156188 -0.0191096 -1.66977
0.160714 1.23867 -0.157519 -0.0145322 -1.66638
0.214286 1.23367 -0.158925 -0.00990027 -1.66266
0.267857 1.22422 -0.160966 -0.00536102 -1.65918
0.321429 1.20895 -0.163853 -0.00241026 -1.65546
0 1.25389 -0.147054 -0.0279463 -1.67236
0.0535714 1.25389 -0.149164 -0.0234306 -1.67068
0.107143 1.25389 -0.150587 -0.0189002 -1.66797
0.160714 1.25213 -0.151922 -0.0144843 -1.66494
0.214286 1.24717 -0.153538 -0.0101714 -1.66148
0.267857 1.23779 -0.155923 -0.00578083 -1.65838
0.321429 1.22263 -0.159512 -0.00304576 -1.65477
0 1.26771 -0.141464 -0.0273333 -1.66986
0.0535714 1.26771 -0.143506 -0.0230049 -1.66854
0.107143 1.26771 -0.144864 -0.0186478 -1.66615
0.160714 1.26596 -0.146214 -0.014401 -1.66346
0.214286 1.26105 -0.147978 -0.0103694 -1.66026
0.267857 1.25173 -0.150659 -0.00621172 -1.65752
0.321429 1.2367 -0.154581 -0.00354313 -1.65405
0 1.28192 -0.135875 -0.02674 -1.66738
0.0535714 1.28192 -0.137813 -0.0225737 -1.66639
0.107143 1.28192 -0.139131 -0.0184021 -1.66431
0.160714 1.28018 -0.140467 -0.0143154 -1.66196
0.214286 1.2753 -0.142291 -0.0105087 -1.65901
0.267857 1.26607 -0.145113 -0.0065274 -1.65662
0.321429 1.25115 -0.149299 -0.00394706 -1.6533
0 1.29651 -0.130205 -0.0261363 -1.6649
0.0535714 1.29651 -0.132087 -0.0221437 -1.66423
0.107143 1.29651 -0.133323 -0.018139 -1.66245
0.160714 1.29479 -0.13468 -0.0142463 -1.66042
0.214286 1.28995 -0.1365 -0.0106122 -1.65773
0.267857 1.28079 -0.139431 -0.00682009 -1.65565
0.321429 1.266 -0.14374 -0.00421592 -1.65253
0 1.31151 -0.124411 -0.0255229 -1.66243
0.0535714 1.31151 -0.126204 -0.0216748 -1.66207
0.107143 1.31151 -0.127383 -0.0178264 -1.66057
0.160714 1.3098 -0.128815 -0.0141674 -1.65885
0.214286 1.30501 -0.130611 -0.0106884 -1.65642
0.267857 1.29593 -0.133609 -0.00709328 -1.65463
0.321429 1.28126 -0.137987 -0.004422 -1.65172
0 1.32692 -0.118543 -0.0249304 -1.65998
0.0535714 1.32692 -0.120282 -0.0212406 -1.6599
0.107143 1.32692 -0.121478 -0.0175809 -1.65868
0.160714 1.32523 -0.122824 -0.0140403 -1.65726
0.214286 1.32048 -0.124671 -0.0107561 -1.65507
0.267857 1.31148 -0.127719 -0.00739573 -1.65356
0.321429 1.29695 -0.132099 -0.00463997 -1.65088
0 1.34276 -0.112627 -0.0243535 -1.65754
0.0535714 1.34276 -0.114341 -0.0208246 -1.65773
0.107143 1.34276 -0.115499 -0.0173205 -1.65678
0.160714 1.34109 -0.11678 -0.0139097 -1.65563
0.214286 1.33638 -0.118667 -0.010787 -1.6537
0.267857 1.32746 -0.121712 -0.00763469 -1.65244
0.321429 1.31307 -0.126104 -0.00490189 -1.65002
0 1.35904 -0.106565 -0.0237687 -1.65512
0.0535714 1.35904 -0.108227 -0.0203956 -1.65556
0.107143 1.35904 -0.10936 -0.0170317 -1.65486
0.160714 1.35738 -0.110695 -0.0137959 -1.65398
0.214286 1.35272 -0.112581 -0.0107834 -1.6523
0.267857 1.34389 -0.115642 -0.00780226 -1.65126
0.321429 1.32963 -0.120029 -0.00512748 -1.64911
0 1.37577 -0.100382 -0.0231532 -1.65273
0.0535714 1.37577 -0.102062 -0.0199365 -1.65339
0.107143 1.37577 -0.103183 -0.016704 -1.65294
0.160714 1.37413 -0.104529 -0.0136143 -1.6523
0.214286 1.36951 -0.106479 -0.0107675 -1.65087
0.267857 1.36077 -0.109518 -0.00794211 -1.65005
0.321429 1.34665 -0.113881 -0.00529911 -1.64817
0 1.39296 -0.0942534 -0.0225446 -1.65035
0.0535714 1.39296 -0.095897 -0.0194619 -1.65122
0.107143 1.39296 -0.0970731 -0.0164 -1.65101
0.160714 1.39133 -0.0984559 -0.0134682 -1.6506
0.214286 1.38676 -0.10037 -0.0107322 -1.64942
0.267857 1.37811 -0.10341 -0.00807651 -1.64879
0.321429 1.36414 -0.107708 -0.00549027 -1.64718
0 1.41063 -0.0882357 -0.0219388 -1.648
0.0535714 1.41063 -0.0898349 -0.0190035 -1.64907
0.107143 1.41063 -0.0909812 -0.0160784 -1.64908
0.160714 1.40902 -0.0923377 -0.0132753 -1.64889
0.214286 1.4045 -0.0942223 -0.0106493 -1.64794
0.267857 1.39594 -0.0972571 -0.00815967 -1.64749
0.321429 1.38212 -0.101537 -0.00570046 -1.64616
0 1.42878 -0.0821878 -0.0213247 -1.64568
0.0535714 1.42878 -0.0837469 -0.0185357 -1.64692
0.107143 1.42878 -0.0848822 -0.0157445 -1.64714
0.160714 1.42719 -0.0862077 -0.0130692 -1.64715
0.214286 1.42272 -0.0880729 -0.0105566 -1.64645
0.267857 1.41426 -0.0910398 -0.00818547 -1.64616
0.321429 1.40059 -0.0953093 -0.0058566 -1.64508
0 1.44743 -0.0761401 -0.0207158 -1.64338
0.0535714 1.44743 -0.0776455 -0.018057 -1.64478
0.107143 1.44743 -0.0787844 -0.0154077 -1.64521
0.160714 1.44586 -0.0801211 -0.0128704 -1.64541
0.214286 1.44144 -0.0819593 -0.0104655 -1.64492
0.267857 1.43308 -0.0848206 -0.00820147 -1.6448
0.321429 1.41957 -0.0889984 -0.00595952 -1.64397
0 1.46661 -0.0702709 -0.0201229 -1.6411
0.0535714 1.46661 -0.0716996 -0.0175963 -1.64266
0.107143 1.46661 -0.0727783 -0.0150673 -1.64327
0.160714 1.46505 -0.0740553 -0.0126442 -1.64365
0.214286 1.46069 -0.0758825 -0.010358 -1.64338
0.267857 1.45243 -0.0786705 -0.00821065 -1.64341
0.321429 1.43908 -0.0827337 -0.00607578 -1.64281
0 1.48631 -0.0644331 -0.0195228 -1.63886
0.0535714 1.48631 -0.0658673 -0.0171315 -1.64055
0.107143 1.48631 -0.066922 -0.0147271 -1.64134
0.160714 1.48477 -0.0681663 -0.012419 -1.64188
0.214286 1.48046 -0.0698681 -0.0102225 -1.64182
0.267857 1.47231 -0.0725714 -0.00816975 -1.642
0.321429 1.45913 -0.0764917 -0.0061651 -1.64161
0 1.50655 -0.0584809 -0.0189003 -1.63664
0.0535714 1.50655 -0.0599632 -0.0166445 -1.63845
0.107143 1.50655 -0.0610806 -0.0143746 -1.63941
0.160714 1.50504 -0.0623376 -0.0121874 -1.64011
0.214286 1.50079 -0.0639786 -0.0100719 -1.64024
0.267857 1.49273 -0.0665644 -0.0081221 -1.64057
0.321429 1.47973 -0.0703043 -0.00621057 -1.64037
0 1.52736 -0.0525306 -0.0182614 -1.63445
0.0535714 1.52736 -0.0540132 -0.0161254 -1.63637
0.107143 1.52736 -0.0552146 -0.0139901 -1.63748
0.160714 1.52587 -0.056515 -0.0119281 -1.63833
0.214286 1.52167 -0.0581897 -0.0099337 -1.63864
0.267857 1.51373 -0.0606787 -0.00806157 -1.63911
0.321429 1.5009 -0.064277 -0.00624346 -1.63909
0 1.54874 -0.0466178 -0.0176132 -1.63228
0.0535714 1.54874 -0.048079 -0.0155904 -1.6343
0.107143 1.54874 -0.0492751 -0.0135708 -1.63556
0.160714 1.54727 -0.0506207 -0.0116257 -1.63654
0.214286 1.54313 -0.0523274 -0.00974549 -1.63702
0.267857 1.5353 -0.0548295 -0.00796805 -1.63763
0.321429 1.52266 -0.0583317 -0.00626234 -1.63778
0 1.57071 -0.040567 -0.016957 -1.63014
0.0535714 1.57071 -0.0420051 -0.0150335 -1.63225
0.107143 1.57071 -0.0432251 -0.0131264 -1.63364
0.160714 1.56926 -0.044577 -0.0112879 -1.63476
0.214286 1.56519 -0.0463713 -0.00952881 -1.6354
0.267857 1.55747 -0.0488889 -0.00784578 -1.63613
0.321429 1.54502 -0.0523736 -0.00622561 -1.63645
0 1.59329 -0.0345005 -0.0162952 -1.62803
0.0535714 1.59329 -0.0359134 -0.0144793 -1.63022
0.107143 1.59329 -0.037122 -0.012668 -1.63174
0.160714 1.59187 -0.0384665 -0.010934 -1.63297
0.214286 1.58785 -0.0402802 -0.00928053 -1.63375
0.267857 1.58026 -0.0428428 -0.00770264 -1.63462
0.321429 1.56799 -0.0463399 -0.00617718 -1.63508
0 1.6165 -0.0284863 -0.0156468 -1.62595
0.0535714 1.6165 -0.0298283 -0.0139174 -1.62821
0.107143 1.6165 -0.0309902 -0.0122056 -1.62983
0.160714 1.61509 -0.0323209 -0.0105583 -1.63118
0.214286 1.61115 -0.0341056 -0.00898815 -1.6321
0.267857 1.60367 -0.0366461 -0.00750469 -1.63308
0.321429 1.5916 -0.0401537 -0.00608484 -1.63368
0 1.64034 -0.0225319 -0.0150316 -1.62389
0.0535714 1.64034 -0.0237968 -0.0133694 -1.62622
0.107143 1.64034 -0.0248932 -0.0117266 -1.62794
0.160714 1.63896 -0.0262317 -0.0101734 -1.62939
0.214286 1.63508 -0.0279557 -0.00868321 -1.63044
0.267857 1.62773 -0.0304401 -0.00728194 -1.63153
0.321429 1.61587 -0.0338528 -0.00594055 -1.63226
0 1.66485 -0.0167717 -0.0144217 -1.62186
0.0535714 1.66485 -0.0179681 -0.0128441 -1.62424
0.107143 1.66485 -0.018985 -0.0112729 -1.62606
0.160714 1.66349 -0.0202382 -0.00977429 -1.6276
0.214286 1.65968 -0.0218971 -0.00836294 -1.62877
0.267857 1.65246 -0.0242969 -0.00704309 -1.62996
0.321429 1.6408 -0.0275935 -0.0057847 -1.63082
0 1.69003 -0.0110998 -0.0138149 -1.61986
0.0535714 1.69003 -0.0122731 -0.0123229 -1.62229
0.107143 1.69003 -0.0132911 -0.0108355 -1.62419
0.160714 1.6887 -0.0144141 -0.00938858 -1.62582
0.214286 1.68496 -0.0159803 -0.00803257 -1.6271
0.267857 1.67787 -0.01822 -0.00677068 -1.62838
0.321429 1.66643 -0.0213862 -0.00558552 -1.62936
0 1.71591 -0.00555261 -0.0132209 -1.61788
0.0535714 1.71591 -0.0066735 -0.0117991 -1.62036
0.107143 1.71591 -0.00765879 -0.0103825 -1.62233
0.160714 1.7146 -0.00881935 -0.00901932 -1.62404
0.214286 1.71093 -0.0102862 -0.00771766 -1.62542
0.267857 1.70398 -0.0123949 -0.00650127 -1.62679
0.321429 1.69276 -0.0153462 -0.00537093 -1.62788
0 1.7425 -0.000256933 -0.0126405 -1.61593
0.0535714 1.7425 -0.00130959 -0.0112884 -1.61844
0.107143 1.7425 -0.00221899 -0.00993875 -1.62048
0.160714 1.74122 -0.00329 -0.00863134 -1.62226
0.214286 1.73763 -0.00469668 -0.00739453 -1.62373
0.267857 1.73082 -0.00669877 -0.00622593 -1.62519
0.321429 1.71982 -0.00947463 -0.00514301 -1.62638
0 1.76983 0.00493698 -0.0120816 -1.61401
0.0535714 1.76983 0.00393502 -0.0107937 -1.61655
0.107143 1.76983 0.00303444 -0.00951002 -1.61864
0.160714 1.76858 0.00202133 -0.00825772 -1.62049
0.214286 1.76506 0.000693143 -0.00706381 -1.62205
0.267857 1.75839 -0.00119048 -0.0059488 -1.62358
0.321429 1.74763 -0.00377805 -0.00490104 -1.62486
0 1.79792 0.0100147 -0.0115261 -1.61212
0.0535714 1.79792 0.00903662 -0.0103036 -1.61468
0.107143 1.79792 0.00817298 -0.00907696 -1.61683
0.160714 1.79669 0.00721713 -0.00788688 -1.61873
0.214286 1.79325 0.00595229 -0.00673807 -1.62037
0.267857 1.78673 0.00417224 -0.00566373 -1.62197
0.321429 1.77621 0.00171958 -0.00466071 -1.62333
0 1.82678 0.0150354 -0.0109556 -1.61025
0.0535714 1.82678 0.0140559 -0.00980692 -1.61284
0.107143 1.82678 0.0132078 -0.00864914 -1.61502
0.160714 1.82558 0.0122765 -0.00751363 -1.61698
0.214286 1.82222 0.0110812 -0.00641827 -1.61868
0.267857 1.81586 0.00944789 -0.00537929 -1.62035
0.321429 1.80558 0.0071572 -0.00440942 -1.62179
0 1.85644 0.0199019 -0.010392 -1.60842
0.0535714 1.85644 0.0189633 -0.00930093 -1.61102
0.107143 1.85644 0.0181213 -0.00821332 -1.61324
0.160714 1.85527 0.0171833 -0.00713843 -1.61525
0.214286 1.85199 0.0160395 -0.006102 -1.61701
0.267857 1.84578 0.0144891 -0.00511035 -1.61873
0.321429 1.83576 0.0123938 -0.00417011 -1.62024
0 1.88692 0.0245004 -0.00983583 -1.60662
0.0535714 1.88692 0.023619 -0.00880453 -1.60922
0.107143 1.88692 0.0228361 -0.00777183 -1.61147
0.160714 1.88578 0.0219614 -0.00676162 -1.61352
0.214286 1.88259 0.0208897 -0.0057806 -1.61534
0.267857 1.87654 0.0194517 -0.00483884 -1.6171
0.321429 1.86677 0.0174957 -0.00393747 -1.61868
0 1.91824 0.0290272 -0.00930508 -1.60484
0.0535714 1.91824 0.0281867 -0.00833052 -1.60745
0.107143 1.91824 0.0274366 -0.00734614 -1.60973
0.160714 1.91714 0.0266122 -0.0063861 -1.61181
0.214286 1.91403 0.0255763 -0.00546 -1.61367
0.267857 1.90814 0.0242131 -0.00457176 -1.61548
0.321429 1.89864 0.0224207 -0.00371257 -1.61711
0 1.95043 0.0333844 -0.00879364 -1.6031
0.0535714 1.95043 0.0326172 -0.00786316 -1.60571
0.107143 1.95043 0.0319038 -0.00693303 -1.608
0.160714 1.94936 0.0311281 -0.00601855 -1.61011
0.214286 1.94634 0.0301694 -0.00513772 -1.61202
0.267857 1.94062 0.0288811 -0.00429462 -1.61387
0.321429 1.9314 0.0271693 -0.00348817 -1.61555
0 1.98351 0.0375955 -0.00831521 -1.60139
0.0535714 1.98351 0.0368871 -0.007422 -1.60399
0.107143 1.98351 0.0362337 -0.00653523 -1.6063
0.160714 1.98247 0.0355265 -0.00566656 -1.60844
0.214286 1.97954 0.0346369 -0.00482288 -1.61038
0.267857 1.974 0.0334454 -0.00401812 -1.61226
0.321429 1.96505 0.0318582 -0.00324887 -1.61398
0 2.0175 0.0417131 -0.00785633 -1.59972
0.0535714 2.0175 0.0410301 -0.00700312 -1.60231
0.107143 2.0175 0.0404095 -0.00615682 -1.60463
0.160714 2.01649 0.03973 -0.00533091 -1.60678
0.214286 2.01366 0.0389129 -0.0045237 -1.60875
0.267857 2.0083 0.0378263 -0.00374906 -1.61066
0.321429 1.99964 0.0363722 -0.00300759 -1.61242
0 3.035 -0.0262419 6.02347e-06 -1.57636
0.0535714 3.035 -0.0262153 8.02393e-06 -1.57864
0.107143 3.035 -0.0261774 9.94066e-06 -1.58071
0.160714 3.035 -0.0261262 1.18555e-05 -1.58272
0.214286 3.035 -0.0260641 1.3624e-05 -1.58461
0.267857 3.035 -0.0259906 1.53342e-05 -1.58648
0.321429 3.035 -0.0259059 1.69842e-05 -1.5882
0 3.0282 -0.00634443 8.80325e-05 -1.57636
0.0535714 3.0282 -0.00574443 9.11399e-05 -1.57863
0.107143 3.0282 -0.00513271 0.000112115 -1.5807
0.160714 3.02819 -0.00440798 0.000130305 -1.58272
0.214286 3.02817 -0.00347585 0.000137253 -1.58461
0.267857 3.02814 -0.00231362 0.000158738 -1.58647
0.321429 3.02808 -0.00109577 0.000160829 -1.58819
0 3.02121 -0.00493511 0.000222141 -1.57636
0.0535714 3.02121 -0.00344953 0.000246478 -1.57864
0.107143 3.02121 -0.00178577 0.000282348 -1.58071
0.160714 3.0212 0.000191893 0.000320147 -1.58273
0.214286 3.02116 0.00214391 0.000334413 -1.58462
0.267857 3.02109 0.00423136 0.000369929 -1.58648
0.321429 3.02097 0.00644123 0.00038198 -1.5882
0 3.01403 0.0249386 0.000367795 -1.57636
0.0535714 3.01403 0.0263849 0.000459272 -1.57864
0.107143 3.01403 0.0281735 0.00053005 -1.58071
0.160714 3.01401 0.0302868 0.000591785 -1.58273
0.214286 3.01395 0.0325291 0.000624637 -1.58462
0.267857 3.01384 0.0349847 0.000673868 -1.58648
0.321429 3.01366 0.0376461 0.00071338 -1.58821
0 3.00665 0.0180124 0.000548181 -1.57636
0.0535714 3.00665 0.0190752 0.000692182 -1.57862
0.107143 3.00665 0.0204121 0.000805883 -1.58071
0.160714 3.00662 0.0219102 0.000889845 -1.58273
0.214286 3.00654 0.0233598 0.000940909 -1.58463
0.267857 3.00639 0.0246843 0.000995321 -1.58648
0.321429 3.00615 0.0256613 0.00105329 -1.58821
0 2.99906 0.025862 0.000616765 -1.57636
0.0535714 2.99906 0.0265069 0.000778875 -1.57861
0.107143 2.99906 0.0272392 0.000926059 -1.58071
0.160714 2.99903 0.0282492 0.00103744 -1.58273
0.214286 2.99893 0.0293691 0.00110926 -1.58463
0.267857 2.99874 0.030632 0.00117296 -1.58649
0.321429 2.99843 0.0318144 0.00123902 -1.58822
0 2.99127 0.0157675 0.000695655 -1.57637
0.0535714 2.99127 0.0160162 0.000855478 -1.5786
0.107143 2.99127 0.0162416 0.00101786 -1.58071
0.160714 2.99122 0.0164014 0.00115353 -1.58273
0.214286 2.9911 0.0165608 0.00124966 -1.58465
0.267857 2.99087 0.0165106 0.00133255 -1.5865
0.321429 2.9905 0.0160562 0.00141245 -1.58824
0 2.98326 0.0159116 0.000697029 -1.5764
0.0535714 2.98326 0.0159703 0.000848294 -1.57861
0.107143 2.98326 0.0159865 0.00101016 -1.58072
0.160714 2.98321 0.0160212 0.00115837 -1.58275
0.214286 2.98306 0.0160865 0.00127139 -1.58466
0.267857 2.98279 0.0162274 0.00136704 -1.58652
0.321429 2.98235 0.0163054 0.0014528 -1.58826
0 2.97502 0.00877281 0.000707872 -1.57643
0.0535714 2.97502 0.00863393 0.000854396 -1.57863
0.107143 2.97502 0.00847178 0.00101244 -1.58074
0.160714 2.97497 0.00826144 0.00116743 -1.58277
0.214286 2.9748 0.00822968 0.00129338 -1.58469
0.267857 2.97448 0.00832902 0.0014005 -1.58654
0.321429 2.97397 0.00857616 0.00149399 -1.58828
0 2.96657 0.0105506 0.000667965 -1.57647
0.0535714 2.96657 0.0103565 0.000810114 -1.57866
0.107143 2.96657 0.0101515 0.0009637 -1.58077
0.160714 2.9665 0.00990659 0.00111662 -1.5828
0.214286 2.96631 0.00968033 0.00125067 -1.58472
0.267857 2.96595 0.00945169 0.00136625 -1.58658
0.321429 2.96536 0.00917427 0.00146895 -1.58832
0 2.95787 0.00909122 0.00063314 -1.57651
0.0535714 2.95787 0.00882055 0.000775423 -1.5787
0.107143 2.95787 0.00854904 0.000927684 -1.58081
0.160714 2.9578 0.00829845 0.00107951 -1.58284
0.214286 2.95758 0.00809182 0.00121774 -1.58476
0.267857 2.95718 0.00799218 0.00133767 -1.58662
0.321429 2.95652 0.00797665 0.00144508 -1.58836
0 2.94894 0.0107982 0.000578641 -1.57657
0.0535714 2.94894 0.0104883 0.000723154 -1.57875
0.107143 2.94894 0.010191 0.000875001 -1.58086
0.160714 2.94885 0.00988009 0.00102456 -1.58288
0.214286 2.94861 0.00959287 0.00116514 -1.58481
0.267857 2.94816 0.00931633 0.00128934 -1.58666
0.321429 2.94743 0.0090461 0.00140372 -1.58841
0 2.93976 0.0123092 0.000520056 -1.57662
0.0535714 2.93976 0.0119635 0.000668302 -1.57881
0.107143 2.93976 0.0116374 0.000821496 -1.58091
0.160714 2.93966 0.0113338 0.000971002 -1.58294
0.214286 2.9394 0.0111128 0.00111338 -1.58486
0.267857 2.9389 0.0109567 0.00123968 -1.58672
0.321429 2.93809 0.0109033 0.00135686 -1.58847
0 2.93032 0.0141922 0.000454103 -1.57668
0.0535714 2.93032 0.0138189 0.00060693 -1.57887
0.107143 2.93032 0.0134681 0.00076262 -1.58097
0.160714 2.93022 0.0131378 0.00091477 -1.58299
0.214286 2.92993 0.0128479 0.00105979 -1.58492
0.267857 2.92938 0.0125829 0.00118973 -1.58678
0.321429 2.92849 0.0126034 0.00131086 -1.58853
0 2.92063 0.0171871 0.000383442 -1.57675
0.0535714 2.92063 0.0168045 0.000540573 -1.57893
0.107143 2.92063 0.0164456 0.000699281 -1.58103
0.160714 2.92052 0.0161309 0.000852814 -1.58306
0.214286 2.9202 0.0158952 0.000999189 -1.58499
0.267857 2.9196 0.0157438 0.00113216 -1.58685
0.321429 2.91862 0.0157062 0.00125736 -1.5886
0 2.91067 0.0198987 0.000309778 -1.57682
0.0535714 2.91067 0.0195082 0.000471327 -1.57901
0.107143 2.91067 0.019141 0.000633689 -1.5811
0.160714 2.91054 0.0188234 0.000789302 -1.58313
0.214286 2.9102 0.0186213 0.000939429 -1.58506
0.267857 2.90954 0.0185208 0.00107602 -1.58692
0.321429 2.90848 0.0185863 0.0012056 -1.58867
0 2.90043 0.0228153 0.000232648 -1.5769
0.0535714 2.90043 0.0224259 0.000397688 -1.57908
0.107143 2.90043 0.0220584 0.0005634 -1.58118
0.160714 2.90029 0.0217324 0.000722537 -1.58321
0.214286 2.89992 0.0215035 0.000877982 -1.58514
0.267857 2.89921 0.0213549 0.00101883 -1.587
0.321429 2.89807 0.0214242 0.00115342 -1.58875
0 2.88991 0.0259762 0.00015517 -1.57698
0.0535714 2.88991 0.0255915 0.000324323 -1.57917
0.107143 2.88991 0.0252288 0.000493832 -1.58127
0.160714 2.88976 0.0249197 0.00065704 -1.58329
0.214286 2.88936 0.0247227 0.000816885 -1.58522
0.267857 2.88859 0.0246292 0.000961457 -1.58709
0.321429 2.88736 0.0247042 0.00110083 -1.58884
0 2.87909 0.0289778 7.40479e-05 -1.57707
0.0535714 2.87909 0.0285959 0.000248167 -1.57926
0.107143 2.87909 0.0282377 0.00042222 -1.58136
0.160714 2.87894 0.027946 0.000590547 -1.58339
0.214286 2.8785 0.0277621 0.00075458 -1.58531
0.267857 2.87768 0.0277064 0.000904392 -1.58718
0.321429 2.87636 0.0278351 0.00104964 -1.58894
0 2.86798 0.031892 -9.95542e-06 -1.57716
0.0535714 2.86798 0.0315107 0.000169961 -1.57935
0.107143 2.86798 0.0311567 0.000349247 -1.58145
0.160714 2.86782 0.0308739 0.000522407 -1.58348
0.214286 2.86735 0.0307046 0.000691393 -1.58541
0.267857 2.86647 0.0306737 0.000846921 -1.58728
0.321429 2.86505 0.0308396 0.000998134 -1.58904
0 2.85656 0.0349344 -9.41108e-05 -1.57726
0.0535714 2.85656 0.0345495 9.16698e-05 -1.57946
0.107143 2.85656 0.0341937 0.000277295 -1.58156
0.160714 2.85639 0.0339073 0.000455231 -1.58359
0.214286 2.85589 0.0337276 0.000629302 -1.58552
0.267857 2.85495 0.0336694 0.000791023 -1.58739
0.321429 2.85343 0.0337832 0.000946696 -1.58915
0 2.84483 0.0378483 -0.000180495 -1.57737
0.0535714 2.84483 0.037465 1.12642e-05 -1.57957
0.107143 2.84483 0.0371102 0.0002037 -1.58167
0.160714 2.84464 0.0368245 0.000385997 -1.5837
0.214286 2.84411 0.0366576 0.000567229 -1.58564
0.267857 2.84311 0.0366198 0.000734464 -1.58751
0.321429 2.84149 0.0367622 0.000897244 -1.58927
0 2.83277 0.0406433 -0.000269687 -1.57749
0.0535714 2.83277 0.0402644 -7.15301e-05 -1.57969
0.107143 2.83277 0.0399132 0.000126841 -1.58179
0.160714 2.83257 0.0396326 0.000315468 -1.58383
0.214286 2.83201 0.0394732 0.000503038 -1.58576
0.267857 2.83094 0.0394428 0.000676149 -1.58764
0.321429 2.82922 0.0396026 0.000846768 -1.5894
0 2.82038 0.0433396 -0.000360987 -1.57761
0.0535714 2.82038 0.0429647 -0.000155892 -1.57981
0.107143 2.82038 0.0426178 4.70997e-05 -1.58192
0.160714 2.82016 0.0423393 0.000243321 -1.58396
0.214286 2.81957 0.0421859 0.000435773 -1.58589
0.267857 2.81844 0.0421656 0.000616611 -1.58777
0.321429 2.81661 0.0423393 0.000795228 -1.58954
0 2.80764 0.0459824 -0.000454961 -1.57775
0.0535714 2.80764 0.0456066 -0.000242819 -1.57995
0.107143 2.80764 0.0452595 -3.31905e-05 -1.58206
0.160714 2.80742 0.0449823 0.000169321 -1.5841
0.214286 2.80678 0.0448169 0.000367067 -1.58603
0.267857 2.80559 0.0448049 0.000555691 -1.58792
0.321429 2.80365 0.0449886 0.000742774 -1.58968
0 2.79456 0.0485859 -0.000550081 -1.57789
0.0535714 2.79456 0.0482094 -0.00033101 -1.5801
0.107143 2.79456 0.0478598 -0.000114497 -1.58221
0.160714 2.79432 0.0475764 9.43492e-05 -1.58425
0.214286 2.79365 0.0474065 0.000298949 -1.58619
0.267857 2.79238 0.0473626 0.00049439 -1.58807
0.321429 2.79034 0.047546 0.000690024 -1.58984
0 2.78111 0.0510813 -0.000648847 -1.57805
0.0535714 2.78111 0.0507018 -0.000423091 -1.58026
0.107143 2.78111 0.050348 -0.000199399 -1.58237
0.160714 2.78086 0.0500645 1.68965e-05 -1.58441
0.214286 2.78015 0.0498985 0.000230066 -1.58635
0.267857 2.77881 0.0498636 0.000434114 -1.58824
0.321429 2.77665 0.0500084 0.000636668 -1.59001
0 2.76729 0.053474 -0.000750094 -1.57821
0.0535714 2.76729 0.0530905 -0.000517648 -1.58042
0.107143 2.76729 0.0527356 -0.000287948 -1.58254
0.160714 2.76702 0.0524517 -6.32077e-05 -1.58459
0.214286 2.76628 0.0522922 0.000160725 -1.58653
0.267857 2.76487 0.0522632 0.000373341 -1.58842
0.321429 2.76259 0.0524108 0.000584359 -1.59019
0 2.75308 0.0557457 -0.00085543 -1.57839
0.0535714 2.75308 0.055361 -0.000616155 -1.5806
0.107143 2.75308 0.055007 -0.00037776 -1.58272
0.160714 2.7528 0.0547266 -0.000144218 -1.58477