VARIABLES = "X" ,  "Y" , "U", "V", "P", "NUT", "BETA", "BETADES", "BETADIFF", "BETADIFF2", "PNUT", "DES", "DIFF", "DIFF2","FX","FY"  
ZONE NODES = 21417 , ELEMENTS = 42240 , DATAPACKING = POINT , ZONETYPE=FETRIANGLE 
0 1 1.29263e-35 8.31853e-32 -1.72042 1.50823e-37 1 1 1 1 2.66619e-37 -8.41482e-102 0.00863946 0.000762614 0 0
0.0535714 1 1.70476e-35 8.31538e-32 -1.70937 1.03196e-37 1 1 1 1 1.68872e-37 -4.65883e-101 0.00755835 0.000664116 0 0
0.107143 1 1.58614e-33 8.31516e-32 -1.70031 1.07166e-37 1 1 1 1 1.76552e-37 -5.18241e-101 0.00780566 0.000615549 0 0
0.160714 0.997986 5.98109e-33 8.31503e-32 -1.69166 1.16047e-37 1 1 1 1 1.61758e-37 -7.76889e-101 0.00737291 0.000564512 0 0
0.214286 0.992322 1.2723e-32 8.31116e-32 -1.67979 8.97502e-38 1 1 1 1 5.93613e-38 -7.63495e-101 0.00589588 0.000431167 0 0
0.267857 0.9816 2.17279e-32 8.30361e-32 -1.66741 3.65036e-38 1 1 1 1 7.32725e-39 -1.75079e-101 0.0044664 0.000292494 0 0
0.321429 0.964286 3.52182e-32 8.75766e-32 -1.65932 5.1005e-38 1 1 1 1 3.89461e-38 -1.36169e-101 0.00476436 0.000236841 0 0
0 1.0068 0.0952553 0.00050194 -1.72043 0.000206436 1 1 1 1 0.000478597 -0.000411475 -0.00120536 0.00081262 0 0
0.0535714 1.0068 0.0909826 -5.98022e-05 -1.70929 0.000188053 1 1 1 1 0.000414732 -0.000924441 -0.000616214 0.000764799 0 0
0.107143 1.0068 0.0908871 -0.00150618 -1.7001 0.000183926 1 1 1 1 0.00038757 -0.000920535 -0.000526952 0.000720977 0 0
0.160714 1.00479 0.0723827 -0.00438603 -1.69122 0.000175341 1 1 1 1 0.000318925 -0.00101718 -0.000233031 0.000665702 0 0
0.214286 0.999148 0.0295624 -0.00303409 -1.67955 0.000151683 1 1 1 1 0.000195869 -0.00129903 0.000372697 0.00056001 0 0
0.267857 0.988463 -0.013276 0.0045209 -1.66772 0.000119735 1 1 1 1 7.35198e-05 -0.00115112 0.000533286 0.000398149 0 0
0.321429 0.971206 -0.0341689 0.0143144 -1.65991 9.65539e-05 1 1 1 1 8.62666e-05 -0.000544292 5.02663e-05 0.000237563 0 0
0 1.01379 0.245492 0.0029615 -1.72036 0.000414219 1 1 1 1 0.000864781 -0.000528372 -0.000927438 0.000775815 0 0
0.0535714 1.01379 0.227662 0.0009596 -1.70937 0.000394485 1 1 1 1 0.000642208 -0.00110653 -0.000285613 0.000800357 0 0
0.107143 1.01379 0.221305 -0.00149828 -1.70024 0.000384521 1 1 1 1 0.00058591 -0.00111652 -0.000207195 0.000787734 0 0
0.160714 1.01179 0.189229 -0.0064914 -1.69126 0.000370849 1 1 1 1 0.000503487 -0.0011852 7.48012e-05 0.000757527 0 0
0.214286 1.00616 0.112479 -0.00724657 -1.67949 0.000338271 1 1 1 1 0.000354525 -0.0014312 0.000661044 0.000702992 0 0
0.267857 0.995515 0.018586 0.00199115 -1.6677 0.000279981 1 1 1 1 0.000161922 -0.00200434 0.00147905 0.00059011 0 0
0.321429 0.978318 -0.0460583 0.0202176 -1.66 0.00021347 1 1 1 1 -2.67554e-06 -0.00122381 0.000984806 0.000363815 0 0
0 1.02097 0.417652 0.00799295 -1.72 0.000600147 1 1 1 1 0.00115315 -0.000460042 -0.000924378 0.000495504 0 0
0.0535714 1.02097 0.385843 0.00300868 -1.70911 0.000594216 1 1 1 1 0.000895306 -0.000869854 -0.000567895 0.000602234 0 0
0.107143 1.02097 0.370127 -0.00115673 -1.69995 0.000587608 1 1 1 1 0.000803547 -0.000939881 -0.000468483 0.00065693 0 0
0.160714 1.01898 0.330219 -0.00773343 -1.69101 0.000570713 1 1 1 1 0.000737418 -0.000918413 -0.000210759 0.000661928 0 0
0.214286 1.01337 0.236223 -0.0111636 -1.67942 0.000537925 1 1 1 1 0.000616134 -0.00089783 0.000102158 0.000678667 0 0
0.267857 1.00276 0.0996027 -0.00461848 -1.66777 0.000473015 1 1 1 1 0.000354454 -0.00122495 0.000657201 0.000646589 0 0
0.321429 0.985626 -0.0258836 0.0188233 -1.66029 0.000366352 1 1 1 1 6.41747e-05 -0.00171784 0.00145457 0.000495656 0 0
0 1.02835 0.566473 0.0149891 -1.7193 0.000750279 1 1 1 1 0.00113295 -0.000412365 -0.00060713 0.000333715 0 0
0.0535714 1.02835 0.526341 0.00685246 -1.70873 0.000763439 1 1 1 1 0.00100009 -0.000692819 -0.000534993 0.000392742 0 0
0.107143 1.02835 0.502358 0.000654182 -1.69954 0.000767359 1 1 1 1 0.000936656 -0.000759032 -0.000565344 0.000446665 0 0
0.160714 1.02637 0.460835 -0.0073193 -1.69051 0.000753546 1 1 1 1 0.000924002 -0.000715276 -0.000454398 0.000471381 0 0
0.214286 1.02078 0.367858 -0.013129 -1.67907 0.000723582 1 1 1 1 0.000929252 -0.0006107 -0.000245213 0.000491456 0 0
0.267857 1.01021 0.214501 -0.0118213 -1.66746 0.000661666 1 1 1 1 0.000735354 -0.000567589 3.26809e-05 0.000526261 0 0
0.321429 0.993137 0.0341729 0.00990805 -1.66036 0.000545377 1 1 1 1 0.000276245 -0.00104828 0.000695209 0.000519639 0 0
0 1.03594 0.671756 0.022201 -1.7181 0.000881768 1 1 1 1 0.000856872 -0.00045443 -0.000228853 0.000295875 0 0
0.0535714 1.03594 0.631091 0.0115409 -1.7079 0.000905017 1 1 1 1 0.000865049 -0.000654208 -0.000222474 0.000299523 0 0
0.107143 1.03594 0.602659 0.00352779 -1.69884 0.000918849 1 1 1 1 0.000873529 -0.000689245 -0.000329792 0.000322059 0 0
0.160714 1.03396 0.563197 -0.00533339 -1.68983 0.000909466 1 1 1 1 0.000924089 -0.000622975 -0.000354465 0.000339785 0 0
0.214286 1.0284 0.481801 -0.012484 -1.67867 0.000882298 1 1 1 1 0.00106221 -0.000483839 -0.000289674 0.000355031 0 0
0.267857 1.01786 0.335177 -0.0156312 -1.66699 0.000830227 1 1 1 1 0.00108939 -0.000386091 -0.000231433 0.000393303 0 0
0.321429 1.00085 0.126775 -0.00187105 -1.66015 0.000721143 1 1 1 1 0.000673607 -0.000391444 3.61007e-05 0.00043294 0 0
0 1.04373 0.735869 0.0285779 -1.7167 0.00102195 1 1 1 1 0.000543556 -0.000663891 0.000155676 0.000357136 0 0
0.0535714 1.04373 0.700772 0.0164028 -1.70683 0.00103892 1 1 1 1 0.0006292 -0.000765953 5.98183e-05 0.000296829 0 0
0.107143 1.04373 0.672631 0.00698195 -1.69788 0.0010565 1 1 1 1 0.000698073 -0.000728246 -7.32739e-05 0.000287374 0 0
0.160714 1.04176 0.637291 -0.00248655 -1.68895 0.00105001 1 1 1 1 0.000792729 -0.00061665 -0.000145945 0.000285157 0 0
0.214286 1.03622 0.570535 -0.0101562 -1.67812 0.00102278 1 1 1 1 0.00100086 -0.000440817 -0.00015312 0.000280859 0 0
0.267857 1.02573 0.443589 -0.0157548 -1.66648 0.00097579 1 1 1 1 0.00122663 -0.000310524 -0.000212966 0.000293527 0 0
0.321429 1.00879 0.233147 -0.0115227 -1.65948 0.000880766 1 1 1 1 0.00106578 -0.000259482 -0.000157484 0.000354161 0 0
0 1.05174 0.770763 0.0335601 -1.7151 0.00118915 1 1 1 1 0.000318448 -0.00176943 0.0011779 0.000514689 0 0
0.0535714 1.05174 0.743302 0.0207525 -1.70562 0.00118655 1 1 1 1 0.000418471 -0.00125215 0.000571717 0.000379106 0 0
0.107143 1.05174 0.718609 0.010528 -1.69678 0.0011976 1 1 1 1 0.000511511 -0.000927095 0.000193616 0.000318847 0 0
0.160714 1.04978 0.688517 0.000734229 -1.68801 0.00118812 1 1 1 1 0.000623057 -0.000690811 1.88148e-05 0.000290283 0 0
0.214286 1.04426 0.635698 -0.0070108 -1.67758 0.00115627 1 1 1 1 0.00084535 -0.000449432 1.29227e-05 0.000261725 0 0
0.267857 1.03381 0.533304 -0.0132014 -1.66612 0.00110616 1 1 1 1 0.00118295 -0.000279338 -5.74664e-05 0.000242451 0 0
0.321429 1.01694 0.3384 -0.0169351 -1.6585 0.00102444 1 1 1 1 0.00129797 -0.000204398 -0.000216474 0.000273763 0 0
0 1.05998 0.788811 0.0373179 -1.71335 0.00139845 1 1 1 1 0.000201524 -0.00295027 0.00214058 0.000727433 0 0
0.0535714 1.05998 0.76791 0.0243405 -1.70427 0.00136371 1 1 1 1 0.000280385 -0.0030017 0.00219722 0.000545606 0 0
0.107143 1.05998 0.747546 0.0137812 -1.69558 0.00135927 1 1 1 1 0.000366952 -0.00163131 0.00084177 0.000433354 0 0
0.160714 1.05802 0.722783 0.00394551 -1.68696 0.00133891 1 1 1 1 0.000471245 -0.000902738 0.000256262 0.000350958 0 0
0.214286 1.05252 0.681626 -0.00378125 -1.67704 0.00129468 1 1 1 1 0.000670558 -0.000509224 0.000170534 0.000283162 0 0
0.267857 1.04212 0.603327 -0.00919101 -1.6659 0.00123121 1 1 1 1 0.00103776 -0.000276765 0.000114747 0.000228 0 0
0.321429 1.02531 0.434534 -0.0181922 -1.65758 0.00115207 1 1 1 1 0.00135874 -0.000176387 -0.00011355 0.000219931 0 0
0 1.06843 0.798512 0.0402334 -1.7115 0.00165166 1 1 1 1 0.000160205 -0.00321557 0.00202431 0.000933355 0 0
0.0535714 1.06843 0.78215 0.0272591 -1.70282 0.00158631 1 1 1 1 0.000211718 -0.00321203 0.00216133 0.00075116 0 0
0.107143 1.06843 0.765485 0.0166241 -1.69434 0.00155428 1 1 1 1 0.000276506 -0.00304578 0.00213929 0.000594327 0 0
0.160714 1.06649 0.745326 0.00699186 -1.68586 0.00151269 1 1 1 1 0.000359514 -0.00148946 0.000757537 0.000457803 0 0
0.214286 1.06101 0.713144 -0.000819463 -1.67649 0.00144835 1 1 1 1 0.000517602 -0.000640488 0.000313282 0.00034066 0 0
0.267857 1.05065 0.655388 -0.00478154 -1.66582 0.00136138 1 1 1 1 0.000858014 -0.000300427 0.000253753 0.000247421 0 0
0.321429 1.03392 0.517769 -0.0162509 -1.65689 0.00127127 1 1 1 1 0.0013023 -0.000163312 5.99583e-05 0.00019699 0 0
0 1.07713 0.804403 0.0426246 -1.70956 0.00193834 1 1 1 1 0.00015817 -0.00353513 0.00196326 0.00108086 0 0
0.0535714 1.07713 0.790935 0.0296962 -1.70127 0.00184776 1 1 1 1 0.000187822 -0.00345573 0.00207687 0.000919886 0 0
0.107143 1.07713 0.776956 0.0190709 -1.69306 0.00179 1 1 1 1 0.000231066 -0.00324239 0.00205221 0.000765005 0 0
0.160714 1.07519 0.760313 0.0098015 -1.68473 0.0017168 1 1 1 1 0.000289152 -0.00278038 0.0019358 0.000595567 0 0
0.214286 1.06974 0.734667 0.00178891 -1.67589 0.00162566 1 1 1 1 0.000402053 -0.000918201 0.000415483 0.000439276 0 0
0.267857 1.05943 0.692506 -0.000724274 -1.66587 0.00150668 1 1 1 1 0.000683428 -0.000356836 0.000412154 0.000292291 0 0
0.321429 1.04277 0.586547 -0.0121985 -1.65649 0.00139057 1 1 1 1 0.00117677 -0.000162169 0.000201558 0.000196085 0 0
0 1.08606 0.80859 0.0446957 -1.70756 0.00224954 1 1 1 1 0.000173747 -0.00386789 0.00196806 0.00118253 0 0
0.0535714 1.08606 0.796982 0.0318239 -1.69966 0.00213827 1 1 1 1 0.000188216 -0.00373882 0.00203866 0.0010407 0 0
0.107143 1.08606 0.784853 0.0212148 -1.69174 0.00205935 1 1 1 1 0.000214405 -0.00346725 0.00198792 0.000905193 0 0
0.160714 1.08413 0.770695 0.0123659 -1.68361 0.00195769 1 1 1 1 0.000252267 -0.00313362 0.00199568 0.000743284 0 0
0.214286 1.07871 0.749694 0.00412375 -1.6752 0.00183027 1 1 1 1 0.000324187 -0.00158535 0.000939776 0.000541943 0 0
0.267857 1.06844 0.718224 0.0025595 -1.66601 0.0016725 1 1 1 1 0.000534341 -0.000458375 0.000484735 0.000355468 0 0
0.321429 1.05186 0.640829 -0.00708703 -1.65634 0.00151811 1 1 1 1 0.0010169 -0.000173625 0.000304552 0.000219127 0 0
0 1.09524 0.812005 0.0465594 -1.7055 0.00258089 1 1 1 1 0.000196646 -0.00419675 0.0020006 0.00125737 0 0
0.0535714 1.09524 0.801661 0.0337496 -1.698 0.00245124 1 1 1 1 0.000200962 -0.00403159 0.00205319 0.00112752 0 0
0.107143 1.09524 0.790834 0.0231508 -1.69038 0.00235505 1 1 1 1 0.000214624 -0.00372063 0.00195387 0.00100885 0 0
0.160714 1.09332 0.778372 0.0146943 -1.68252 0.0022301 1 1 1 1 0.000237874 -0.00333842 0.0019293 0.000862223 0 0
0.214286 1.08792 0.760711 0.00631901 -1.67441 0.00206346 1 1 1 1 0.00027799 -0.00268996 0.00184519 0.000658552 0 0
0.267857 1.0777 0.735964 0.00496631 -1.66617 0.00186465 1 1 1 1 0.000419456 -0.000639851 0.000450528 0.000452155 0 0
0.321429 1.0612 0.681828 -0.00180891 -1.65641 0.00166306 1 1 1 1 0.000850967 -0.0002007 0.000456476 0.000264152 0 0
0 1.10468 0.815063 0.0482792 -1.70338 0.00293023 1 1 1 1 0.000222377 -0.00451484 0.00203909 0.00131659 0 0
0.0535714 1.10468 0.805647 0.0355366 -1.6963 0.00278341 1 1 1 1 0.000219973 -0.00432139 0.00208983 0.00119359 0 0
0.107143 1.10468 0.795794 0.0249544 -1.68897 0.00267182 1 1 1 1 0.000224596 -0.00398103 0.00196281 0.00108492 0 0
0.160714 1.10276 0.7845 0.0167999 -1.68146 0.00252808 1 1 1 1 0.000237556 -0.00356642 0.0019133 0.000960599 0 0
0.214286 1.09739 0.769294 0.00847619 -1.67354 0.00232877 1 1 1 1 0.000256087 -0.00303955 0.00189499 0.000781579 0 0
0.267857 1.08722 0.748554 0.00662753 -1.66624 0.00208598 1 1 1 1 0.000338572 -0.00101157 0.000671049 0.000552205 0 0
0.321429 1.0708 0.711579 0.002962 -1.6567 0.0018308 1 1 1 1 0.000695475 -0.000248838 0.000545362 0.000324487 0 0
0 1.11437 0.817958 0.0498881 -1.70119 0.00329641 1 1 1 1 0.000249053 -0.00481938 0.00207435 0.00136542 0 0
0.0535714 1.11437 0.809282 0.0372185 -1.69456 0.00313313 1 1 1 1 0.00024221 -0.00460293 0.00212964 0.00124707 0 0
0.107143 1.11437 0.800208 0.0266761 -1.68751 0.00300691 1 1 1 1 0.000240351 -0.00423869 0.00199491 0.00114424 0 0
0.160714 1.11247 0.78976 0.0187072 -1.68041 0.00284771 1 1 1 1 0.000245932 -0.00380401 0.00190997 0.00103683 0 0
0.214286 1.10712 0.776391 0.0106347 -1.67265 0.0026227 1 1 1 1 0.000251166 -0.00324659 0.00185243 0.000882871 0 0
0.267857 1.09701 0.758067 0.00780368 -1.66614 0.00233605 1 1 1 1 0.000287366 -0.00183616 0.00128622 0.000655788 0 0
0.321429 1.08066 0.732523 0.00680374 -1.65716 0.0020245 1 1 1 1 0.000559925 -0.000327309 0.00056252 0.000397964 0 0
0 1.12433 0.820783 0.0514031 -1.69896 0.00367869 1 1 1 1 0.000275936 -0.00510926 0.00210254 0.00140629 0 0
0.0535714 1.12433 0.812743 0.038813 -1.69278 0.00349948 1 1 1 1 0.00026614 -0.00487392 0.0021648 0.0012919 0 0
0.107143 1.12433 0.80433 0.0283428 -1.68602 0.00335898 1 1 1 1 0.000259697 -0.0044895 0.00203432 0.00119254 0 0
0.160714 1.12244 0.794551 0.0204497 -1.67934 0.00318598 1 1 1 1 0.000259654 -0.00404129 0.00193138 0.00109556 0 0
0.214286 1.11712 0.782565 0.0127744 -1.6718 0.00294094 1 1 1 1 0.000257584 -0.00346474 0.00183606 0.000965483 0 0
0.267857 1.10706 0.765862 0.00877871 -1.66582 0.00261578 1 1 1 1 0.000260494 -0.00270227 0.0018501 0.000762277 0 0
0.321429 1.0908 0.747095 0.00956457 -1.6577 0.00224769 1 1 1 1 0.000449903 -0.000454032 0.000530722 0.000493156 0 0
0 1.13457 0.823584 0.0528314 -1.69667 0.00407657 1 1 1 1 0.000302805 -0.00538413 0.00212211 0.00144044 0 0
0.0535714 1.13457 0.81613 0.0403303 -1.69095 0.00388189 1 1 1 1 0.000290991 -0.0051333 0.00219268 0.00133 0 0
0.107143 1.13457 0.808298 0.0299638 -1.6845 0.00372736 1 1 1 1 0.000281397 -0.00473178 0.00207114 0.00123349 0 0
0.160714 1.13269 0.799102 0.0220674 -1.67822 0.00354129 1 1 1 1 0.000276752 -0.00427351 0.00196688 0.00114263 0 0
0.214286 1.1274 0.78816 0.0148462 -1.671 0.00327999 1 1 1 1 0.0002712 -0.00368828 0.00184733 0.00103289 0 0
0.267857 1.11739 0.772733 0.00977757 -1.66531 0.00292501 1 1 1 1 0.000252482 -0.00297723 0.001823 0.000863856 0 0
0.321429 1.10122 0.75743 0.0113108 -1.65821 0.00250293 1 1 1 1 0.000367017 -0.000674572 0.000640218 0.00059747 0 0
0 1.14509 0.82639 0.0541742 -1.69434 0.00448963 1 1 1 1 0.000329666 -0.00564389 0.00213259 0.00146856 0 0
0.0535714 1.14509 0.819498 0.0417763 -1.68908 0.00427992 1 1 1 1 0.000316384 -0.0053806 0.00221285 0.00136237 0 0
0.107143 1.14509 0.812193 0.0315376 -1.68297 0.00411166 1 1 1 1 0.000304718 -0.00496482 0.00210189 0.00126893 0 0
0.160714 1.14322 0.803543 0.0235981 -1.67703 0.00391291 1 1 1 1 0.000296144 -0.0044988 0.00200523 0.00118219 0 0
0.214286 1.13796 0.793399 0.0168027 -1.67024 0.00363754 1 1 1 1 0.00028915 -0.00391079 0.0018802 0.00108621 0 0
0.267857 1.12801 0.779108 0.0109333 -1.66467 0.00326048 1 1 1 1 0.000258346 -0.00319411 0.00178727 0.000947198 0 0
0.321429 1.11193 0.765212 0.0122616 -1.65856 0.0027895 1 1 1 1 0.000309979 -0.00111986 0.000874633 0.000696492 0 0
0 1.15591 0.82922 0.0554299 -1.69198 0.00491752 1 1 1 1 0.000356612 -0.00588864 0.00213415 0.00149112 0 0
0.0535714 1.15591 0.822879 0.0431546 -1.68716 0.00469326 1 1 1 1 0.000342163 -0.00561561 0.00222563 0.00138959 0 0
0.107143 1.15591 0.816066 0.0330573 -1.68143 0.00451163 1 1 1 1 0.000329204 -0.00518828 0.00212616 0.00129974 0 0
0.160714 1.15405 0.807945 0.0250707 -1.67579 0.00430054 1 1 1 1 0.000317259 -0.00471649 0.00204015 0.00121654 0 0
0.214286 1.14882 0.798433 0.0186142 -1.66948 0.00401216 1 1 1 1 0.000309535 -0.00412867 0.00192847 0.0011292 0 0
0.267857 1.13892 0.785195 0.0122848 -1.66397 0.00361853 1 1 1 1 0.00027398 -0.00341315 0.00176649 0.00101249 0 0
0.321429 1.12293 0.771637 0.0127068 -1.65871 0.00310483 1 1 1 1 0.000276071 -0.00198287 0.00150189 0.000787754 0 0
0 1.16702 0.832092 0.0565955 -1.68959 0.00535991 1 1 1 1 0.000383759 -0.00611849 0.00212741 0.0015085 0 0
0.0535714 1.16702 0.826294 0.0444667 -1.68519 0.00512162 1 1 1 1 0.000368295 -0.00583828 0.00223174 0.00141212 0 0
0.107143 1.16702 0.81995 0.034516 -1.67986 0.00492706 1 1 1 1 0.000354561 -0.005402 0.0021447 0.00132645 0 0
0.160714 1.16517 0.812345 0.0265025 -1.67451 0.00470408 1 1 1 1 0.000339823 -0.00492642 0.00206991 0.00124704 0 0
0.214286 1.15997 0.803363 0.020274 -1.66869 0.0044033 1 1 1 1 0.000331213 -0.00434043 0.00198146 0.00116551 0 0
0.267857 1.15013 0.791097 0.0138018 -1.66328 0.00399638 1 1 1 1 0.000296068 -0.00363121 0.00179841 0.00106699 0 0
0.321429 1.13424 0.777478 0.0129288 -1.65862 0.00344876 1 1 1 1 0.000262074 -0.0026996 0.0019219 0.000878242 0 0
0 1.17844 0.835021 0.0576684 -1.68718 0.00581647 1 1 1 1 0.000411209 -0.00633361 0.00211337 0.00152103 0 0
0.0535714 1.17844 0.829757 0.045712 -1.68319 0.00556477 1 1 1 1 0.000394813 -0.00604868 0.00223217 0.00143033 0 0
0.107143 1.17844 0.82387 0.0359079 -1.67827 0.00535781 1 1 1 1 0.000380596 -0.00560594 0.00215865 0.00134941 0 0
0.160714 1.1766 0.816765 0.0278999 -1.6732 0.00512348 1 1 1 1 0.000363693 -0.00512853 0.00209547 0.00127441 0 0
0.214286 1.17143 0.808259 0.0217936 -1.66784 0.00481086 1 1 1 1 0.000353614 -0.00454565 0.00203394 0.00119795 0 0
0.267857 1.16165 0.796868 0.0154189 -1.66261 0.00439276 1 1 1 1 0.000322064 -0.00384407 0.00186859 0.00111502 0 0
0.321429 1.14585 0.78317 0.0131566 -1.65833 0.00382095 1 1 1 1 0.000264362 -0.00298659 0.00195036 0.000965026 0 0
0 1.19017 0.838021 0.0586463 -1.68474 0.00628693 1 1 1 1 0.000439044 -0.00653422 0.00209338 0.00152908 0 0
0.0535714 1.19017 0.833279 0.0468882 -1.68116 0.00602251 1 1 1 1 0.000421775 -0.00624694 0.00222816 0.00144461 0 0
0.107143 1.19017 0.827843 0.0372299 -1.67664 0.00580378 1 1 1 1 0.000407193 -0.00580013 0.00216935 0.001369 0 0
0.160714 1.18835 0.821218 0.0292612 -1.67188 0.00555876 1 1 1 1 0.000388769 -0.00532284 0.00211877 0.00129906 0 0
0.214286 1.18321 0.813163 0.023194 -1.66692 0.005235 1 1 1 1 0.000376552 -0.00474428 0.0020852 0.001228 0 0
0.267857 1.17349 0.802544 0.0170618 -1.66195 0.00480725 1 1 1 1 0.000350079 -0.0040473 0.00195561 0.00115773 0 0
0.321429 1.15779 0.788925 0.013539 -1.65789 0.00421962 1 1 1 1 0.000279287 -0.00321472 0.0019993 0.00104262 0 0
0 1.20223 0.841106 0.0595281 -1.68229 0.00677101 1 1 1 1 0.000467319 -0.00672055 0.0020691 0.00153302 0 0
0.0535714 1.20223 0.83687 0.0479924 -1.6791 0.00649469 1 1 1 1 0.000449242 -0.00643325 0.00222123 0.00145535 0 0
0.107143 1.20223 0.831882 0.0384803 -1.67497 0.00626491 1 1 1 1 0.000434298 -0.00598469 0.00217829 0.00138562 0 0
0.160714 1.20042 0.825718 0.03058 -1.67053 0.00600997 1 1 1 1 0.000414959 -0.00550935 0.00214199 0.00132138 0 0
0.214286 1.19532 0.818101 0.0244992 -1.66594 0.00567598 1 1 1 1 0.000400094 -0.00493638 0.00213666 0.00125643 0 0
0.267857 1.18566 0.808157 0.0186674 -1.6613 0.00523987 1 1 1 1 0.000378813 -0.00423489 0.00203865 0.00119657 0 0
0.321429 1.17007 0.794815 0.0141442 -1.65735 0.00464295 1 1 1 1 0.000303448 -0.00343296 0.00201353 0.00110827 0 0
0 1.21462 0.844288 0.0603134 -1.67982 0.00726847 1 1 1 1 0.00049607 -0.00689289 0.00204248 0.00153329 0 0
0.0535714 1.21462 0.840541 0.0490209 -1.67702 0.00698121 1 1 1 1 0.000477262 -0.00660786 0.00221315 0.001463 0 0
0.107143 1.21462 0.835996 0.0396586 -1.67327 0.00674123 1 1 1 1 0.000461901 -0.00615974 0.00218715 0.00139971 0 0
0.160714 1.21282 0.830274 0.0318485 -1.66917 0.00647724 1 1 1 1 0.000442155 -0.005688 0.00216726 0.0013418 0 0
0.214286 1.20775 0.82309 0.0257293 -1.66489 0.00613415 1 1 1 1 0.000424431 -0.00512131 0.00218914 0.00128369 0 0
0.267857 1.19816 0.813736 0.0201918 -1.66063 0.00569082 1 1 1 1 0.000407505 -0.00439985 0.00211269 0.00123213 0 0
0.321429 1.18268 0.800841 0.0149773 -1.65676 0.00508881 1 1 1 1 0.000333868 -0.00362796 0.0020507 0.00116347 0 0
0 1.22736 0.847581 0.0610026 -1.67734 0.00777912 1 1 1 1 0.000525317 -0.0070515 0.00201577 0.00153039 0 0
0.0535714 1.22736 0.844301 0.0499704 -1.67492 0.00748199 1 1 1 1 0.000505867 -0.006771 0.0022059 0.00146804 0 0
0.107143 1.22736 0.840193 0.0407641 -1.67153 0.00723281 1 1 1 1 0.000490026 -0.00632531 0.00219767 0.00141175 0 0
0.160714 1.22557 0.834897 0.0330594 -1.66779 0.00696078 1 1 1 1 0.000470247 -0.00585834 0.0021963 0.0013608 0 0
0.214286 1.22054 0.828138 0.0268989 -1.6638 0.00660994 1 1 1 1 0.000449767 -0.00529771 0.002243 0.00131028 0 0
0.267857 1.21101 0.819308 0.0216108 -1.65993 0.0061605 1 1 1 1 0.000435805 -0.00453687 0.00217891 0.00126617 0 0
0.321429 1.19563 0.806977 0.0160005 -1.65612 0.00555625 1 1 1 1 0.000368082 -0.00376545 0.00209717 0.00121407 0 0
0 1.24044 0.850994 0.0615963 -1.67485 0.00830283 1 1 1 1 0.000555069 -0.00719654 0.0019913 0.00152487 0 0
0.0535714 1.24044 0.848161 0.0508382 -1.67281 0.00799707 1 1 1 1 0.000535072 -0.00692282 0.00220148 0.001471 0 0
0.107143 1.24044 0.84448 0.0417964 -1.66977 0.00773981 1 1 1 1 0.000518709 -0.00648105 0.00221126 0.00142228 0 0
0.160714 1.23867 0.839596 0.0342068 -1.66638 0.00746092 1 1 1 1 0.000499133 -0.00601894 0.00222956 0.00137887 0 0
0.214286 1.23367 0.833253 0.0280168 -1.66266 0.00710383 1 1 1 1 0.000476273 -0.0054624 0.00229656 0.00133659 0 0
0.267857 1.22422 0.824896 0.0229166 -1.65918 0.00664952 1 1 1 1 0.000463703 -0.00464314 0.0022329 0.00129961 0 0
0.321429 1.20895 0.813189 0.0171561 -1.65546 0.00604519 1 1 1 1 0.000404193 -0.00380906 0.00210612 0.00126221 0 0
0 1.25389 0.854539 0.0620956 -1.67236 0.00883956 1 1 1 1 0.000585326 -0.00732764 0.00197112 0.00151737 0 0
0.0535714 1.25389 0.852131 0.0516223 -1.67068 0.00852655 1 1 1 1 0.00056488 -0.00706295 0.00220139 0.00147247 0 0
0.107143 1.25389 0.848865 0.0427545 -1.66797 0.00826251 1 1 1 1 0.00054799 -0.00662557 0.0022281 0.00143179 0 0
0.160714 1.25213 0.844378 0.0352863 -1.66494 0.00797806 1 1 1 1 0.000528731 -0.00616615 0.00226446 0.00139645 0 0
0.214286 1.24717 0.838441 0.0290865 -1.66148 0.00761642 1 1 1 1 0.00050404 -0.00560862 0.00234301 0.00136277 0 0
0.267857 1.23779 0.830517 0.0241124 -1.65838 0.00715849 1 1 1 1 0.000491397 -0.00471713 0.0022673 0.00133231 0 0
0.321429 1.22263 0.819451 0.0183831 -1.65477 0.00655579 1 1 1 1 0.000440839 -0.00376725 0.0020478 0.00130654 0 0
0 1.26771 0.858223 0.0625019 -1.66986 0.00938939 1 1 1 1 0.000616082 -0.00744302 0.00195578 0.00150857 0 0
0.0535714 1.26771 0.856219 0.0523214 -1.66854 0.00907066 1 1 1 1 0.000595283 -0.00718972 0.00220556 0.00147301 0 0
0.107143 1.26771 0.853353 0.0436372 -1.66615 0.00880126 1 1 1 1 0.000577901 -0.00675501 0.00224521 0.00144073 0 0
0.160714 1.26596 0.849252 0.0362952 -1.66346 0.00851273 1 1 1 1 0.000558981 -0.00629184 0.00229248 0.00141373 0 0
0.214286 1.26105 0.843709 0.0301084 -1.66026 0.00814829 1 1 1 1 0.000533082 -0.0057238 0.00236734 0.00138852 0 0
0.267857 1.25173 0.836187 0.0252072 -1.65752 0.0076879 1 1 1 1 0.000519193 -0.00475951 0.00227176 0.00136322 0 0
0.321429 1.2367 0.825746 0.019627 -1.65405 0.00708768 1 1 1 1 0.000477116 -0.00368705 0.0019615 0.00134437 0 0
0 1.28192 0.862057 0.0628165 -1.66738 0.0099525 1 1 1 1 0.000647325 -0.0075372 0.00194177 0.0014991 0 0
0.0535714 1.28192 0.860433 0.052935 -1.66639 0.00962971 1 1 1 1 0.000626263 -0.0072982 0.00220997 0.00147307 0 0
0.107143 1.28192 0.857951 0.0444436 -1.66431 0.00935649 1 1 1 1 0.000608455 -0.00686038 0.002253 0.00144922 0 0
0.160714 1.28018 0.854224 0.0372316 -1.66196 0.00906544 1 1 1 1 0.000589836 -0.00638056 0.0022956 0.00143034 0 0
0.214286 1.2753 0.84906 0.0310807 -1.65901 0.00869992 1 1 1 1 0.000563337 -0.00578854 0.00234605 0.00141279 0 0
0.267857 1.26607 0.841919 0.0262124 -1.65662 0.00823802 1 1 1 1 0.000547404 -0.00476522 0.00222776 0.00139088 0 0
0.321429 1.25115 0.832066 0.0208451 -1.6533 0.00764005 1 1 1 1 0.00051253 -0.00361053 0.0019025 0.00137365 0 0
0 1.29651 0.866048 0.0630413 -1.6649 0.0105292 1 1 1 1 0.000679033 -0.00759672 0.00191635 0.00148939 0 0
0.0535714 1.29651 0.864783 0.0534628 -1.66423 0.0102041 1 1 1 1 0.000657793 -0.0073766 0.00220242 0.00147267 0 0
0.107143 1.29651 0.862666 0.0451728 -1.66245 0.00992862 1 1 1 1 0.000639641 -0.00692377 0.0022307 0.00145672 0 0
0.160714 1.29479 0.859298 0.0380945 -1.66042 0.00963656 1 1 1 1 0.000621251 -0.00640839 0.00224544 0.00144493 0 0
0.214286 1.28995 0.854501 0.0320005 -1.65773 0.00927147 1 1 1 1 0.000594669 -0.00577952 0.00225219 0.0014334 0 0
0.267857 1.28079 0.847722 0.0271394 -1.65565 0.00880876 1 1 1 1 0.000576273 -0.00473128 0.00212714 0.00141326 0 0
0.321429 1.266 0.838412 0.0220072 -1.65253 0.00821209 1 1 1 1 0.0005469 -0.00354478 0.00185803 0.00139401 0 0
0 1.31151 0.870202 0.0631781 -1.66243 0.0111199 1 1 1 1 0.00071117 -0.00759398 0.0018508 0.00147921 0 0
0.0535714 1.31151 0.869274 0.0539056 -1.66207 0.0107941 1 1 1 1 0.000689823 -0.00740126 0.00215743 0.00147092 0 0
0.107143 1.31151 0.867503 0.0458242 -1.66057 0.0105179 1 1 1 1 0.00067141 -0.00691615 0.00214483 0.00146154 0 0
0.160714 1.3098 0.86448 0.0388836 -1.65885 0.010226 1 1 1 1 0.000653157 -0.00634842 0.00211158 0.00145476 0 0
0.214286 1.30501 0.860035 0.0328646 -1.65642 0.00986248 1 1 1 1 0.000626881 -0.00568135 0.00207137 0.00144692 0 0
0.267857 1.29593 0.853607 0.027998 -1.65463 0.00939939 1 1 1 1 0.000605936 -0.00465688 0.00197124 0.0014274 0 0
0.321429 1.28126 0.844788 0.0230946 -1.65172 0.00880287 1 1 1 1 0.00058027 -0.00348885 0.00180536 0.00140479 0 0
0 1.32692 0.874527 0.0632291 -1.65998 0.0117248 1 1 1 1 0.000743671 -0.007486 0.00169968 0.00146703 0 0
0.0535714 1.32692 0.873913 0.054264 -1.6599 0.0113998 1 1 1 1 0.00072227 -0.00733502 0.00203574 0.00146542 0 0
0.107143 1.32692 0.872468 0.0463975 -1.65868 0.0111239 1 1 1 1 0.000703662 -0.00680402 0.00195976 0.00146037 0 0
0.160714 1.32523 0.869775 0.039599 -1.65726 0.0108331 1 1 1 1 0.000685441 -0.00618528 0.00188063 0.00145581 0 0
0.214286 1.32048 0.865667 0.0336702 -1.65507 0.0104716 1 1 1 1 0.000659719 -0.00549774 0.00181481 0.00144929 0 0
0.267857 1.31148 0.859578 0.0287961 -1.65356 0.0100084 1 1 1 1 0.000636398 -0.00454403 0.00177068 0.00143011 0 0
0.321429 1.29695 0.851205 0.0240977 -1.65088 0.00941109 1 1 1 1 0.000612791 -0.00343644 0.00172249 0.001405 0 0
0 1.34276 0.879027 0.0631969 -1.65754 0.0123434 1 1 1 1 0.000776417 -0.00723282 0.00142306 0.00144942 0 0
0.0535714 1.34276 0.878704 0.0545396 -1.65773 0.0120203 1 1 1 1 0.000754997 -0.00714003 0.00180049 0.00145196 0 0
0.107143 1.34276 0.877566 0.0468931 -1.65678 0.0117454 1 1 1 1 0.000736235 -0.00656941 0.0016636 0.00144854 0 0
0.160714 1.34109 0.875188 0.0402412 -1.65563 0.0114557 1 1 1 1 0.000717935 -0.0059276 0.0015702 0.0014435 0 0
0.214286 1.33638 0.8714 0.0344145 -1.6537 0.0110964 1 1 1 1 0.00069289 -0.00525013 0.00151373 0.00143669 0 0
0.267857 1.32746 0.865641 0.0295391 -1.65244 0.0106335 1 1 1 1 0.000667546 -0.00439716 0.00153941 0.00141857 0 0
0.321429 1.31307 0.857673 0.0250139 -1.65002 0.010035 1 1 1 1 0.000644645 -0.00338028 0.00160036 0.00139348 0 0
0 1.35904 0.883707 0.0630843 -1.65512 0.0129743 1 1 1 1 0.000809218 -0.00683404 0.00102727 0.00142121 0 0
0.0535714 1.35904 0.883653 0.054734 -1.65556 0.0126538 1 1 1 1 0.000787793 -0.00680635 0.00144947 0.00142519 0 0
0.107143 1.35904 0.882801 0.0473115 -1.65486 0.0123799 1 1 1 1 0.000768892 -0.00622722 0.00128548 0.00142112 0 0
0.160714 1.35738 0.88072 0.0408108 -1.65398 0.012091 1 1 1 1 0.000750411 -0.00560341 0.00121833 0.00141405 0 0
0.214286 1.35272 0.877237 0.0350957 -1.6523 0.0117336 1 1 1 1 0.00072607 -0.00496492 0.00119905 0.00140652 0 0
0.267857 1.34389 0.871801 0.0302308 -1.65126 0.0112714 1 1 1 1 0.000699171 -0.00422273 0.00128893 0.00139098 0 0
0.321429 1.32963 0.864204 0.0258453 -1.64911 0.0106723 1 1 1 1 0.000675985 -0.00331423 0.00143957 0.00136916 0 0
0 1.37577 0.88857 0.0628942 -1.65273 0.0136145 1 1 1 1 0.000841803 -0.0063384 0.000571632 0.00137696 0 0
0.0535714 1.37577 0.888763 0.0548493 -1.65339 0.0132967 1 1 1 1 0.000820374 -0.00636643 0.00102654 0.00138038 0 0
0.107143 1.37577 0.888176 0.0476536 -1.65294 0.0130235 1 1 1 1 0.000801335 -0.00581683 0.000876264 0.00137463 0 0
0.160714 1.37413 0.886378 0.0413089 -1.6523 0.0127346 1 1 1 1 0.000782604 -0.00524389 0.000858524 0.00136558 0 0
0.214286 1.36951 0.883184 0.0357122 -1.65087 0.0123789 1 1 1 1 0.000758932 -0.0046634 0.000887733 0.00135801 0 0
0.267857 1.36077 0.87806 0.0308727 -1.65005 0.0119185 1 1 1 1 0.000730997 -0.00402728 0.00102599 0.00134679 0 0
0.321429 1.34665 0.870807 0.0265967 -1.64817 0.0113201 1 1 1 1 0.000706906 -0.00323396 0.00124597 0.00133135 0 0
0 1.39296 0.893619 0.0626297 -1.65035 0.0142594 1 1 1 1 0.000873832 -0.00580787 0.000121063 0.00131301 0 0
0.0535714 1.39296 0.894038 0.0548877 -1.65122 0.0139442 1 1 1 1 0.000852403 -0.00587305 0.00058739 0.00131521 0 0
0.107143 1.39296 0.893697 0.0479205 -1.65101 0.0136711 1 1 1 1 0.000833229 -0.0053785 0.000474026 0.00130821 0 0
0.160714 1.39133 0.892164 0.0417364 -1.6506 0.013382 1 1 1 1 0.000814219 -0.00487258 0.000507197 0.00129847 0 0
0.214286 1.38676 0.889244 0.0362634 -1.64942 0.0130279 1 1 1 1 0.000791158 -0.00435817 0.000583266 0.00129221 0 0
0.267857 1.37811 0.884422 0.0314652 -1.64879 0.0125704 1 1 1 1 0.000762704 -0.00381689 0.000756179 0.00128675 0 0
0.321429 1.36414 0.877492 0.0272744 -1.64718 0.0119748 1 1 1 1 0.000737425 -0.00313727 0.00102789 0.00128 0 0
0 1.41063 0.898856 0.0622942 -1.648 0.0149033 1 1 1 1 0.000904929 -0.00528531 -0.000293126 0.00122894 0 0
0.0535714 1.41063 0.89948 0.0548517 -1.64907 0.0145905 1 1 1 1 0.000883515 -0.00537001 0.000164922 0.00123058 0 0
0.107143 1.41063 0.899365 0.0481138 -1.64908 0.0143172 1 1 1 1 0.000864227 -0.00493995 9.3736e-05 0.00122367 0 0
0.160714 1.40902 0.898081 0.0420945 -1.64889 0.0140277 1 1 1 1 0.000844959 -0.00450399 0.000169248 0.00121501 0 0
0.214286 1.4045 0.89542 0.0367489 -1.64794 0.0136757 1 1 1 1 0.000822447 -0.00405657 0.000286176 0.00121148 0 0
0.267857 1.39594 0.89089 0.0320078 -1.64749 0.0132226 1 1 1 1 0.000793955 -0.00359749 0.000485721 0.00121259 0 0
0.321429 1.38212 0.884268 0.0278848 -1.64616 0.0126325 1 1 1 1 0.000767488 -0.003024 0.000794313 0.00121584 0 0